[Molden Format]
[Atoms] AU
   N     1     7    0.00000000    0.00000000   -1.03934937
   N     2     7    0.00000000    0.00000000    1.03934937
[GTO]
   1   0
   s     8  1.00
    1.1420000000E+04    5.2300000000E-04
    1.7120000000E+03    4.0450000000E-03
    3.8930000000E+02    2.0775000000E-02
    1.1000000000E+02    8.0727000000E-02
    3.5570000000E+01    2.3307400000E-01
    1.2540000000E+01    4.3350100000E-01
    4.6440000000E+00    3.4747200000E-01
    5.1180000000E-01   -8.5080000000E-03
   s     8  1.00
    1.1420000000E+04   -1.1500000000E-04
    1.7120000000E+03   -8.9500000000E-04
    3.8930000000E+02   -4.6240000000E-03
    1.1000000000E+02   -1.8528000000E-02
    3.5570000000E+01   -5.7339000000E-02
    1.2540000000E+01   -1.3207600000E-01
    4.6440000000E+00   -1.7251000000E-01
    5.1180000000E-01    5.9994400000E-01
   s     1  1.00
    1.2930000000E+00    1.0000000000E+00
   s     1  1.00
    1.7870000000E-01    1.0000000000E+00
   p     3  1.00
    2.6630000000E+01    1.4670000000E-02
    5.9480000000E+00    9.1764000000E-02
    1.7420000000E+00    2.9868300000E-01
   p     1  1.00
    5.5500000000E-01    1.0000000000E+00
   p     1  1.00
    1.7250000000E-01    1.0000000000E+00
   d     1  1.00
    1.6540000000E+00    1.0000000000E+00
   d     1  1.00
    4.6900000000E-01    1.0000000000E+00
   f     1  1.00
    1.0930000000E+00    1.0000000000E+00

   2   0
   s     8  1.00
    1.1420000000E+04    5.2300000000E-04
    1.7120000000E+03    4.0450000000E-03
    3.8930000000E+02    2.0775000000E-02
    1.1000000000E+02    8.0727000000E-02
    3.5570000000E+01    2.3307400000E-01
    1.2540000000E+01    4.3350100000E-01
    4.6440000000E+00    3.4747200000E-01
    5.1180000000E-01   -8.5080000000E-03
   s     8  1.00
    1.1420000000E+04   -1.1500000000E-04
    1.7120000000E+03   -8.9500000000E-04
    3.8930000000E+02   -4.6240000000E-03
    1.1000000000E+02   -1.8528000000E-02
    3.5570000000E+01   -5.7339000000E-02
    1.2540000000E+01   -1.3207600000E-01
    4.6440000000E+00   -1.7251000000E-01
    5.1180000000E-01    5.9994400000E-01
   s     1  1.00
    1.2930000000E+00    1.0000000000E+00
   s     1  1.00
    1.7870000000E-01    1.0000000000E+00
   p     3  1.00
    2.6630000000E+01    1.4670000000E-02
    5.9480000000E+00    9.1764000000E-02
    1.7420000000E+00    2.9868300000E-01
   p     1  1.00
    5.5500000000E-01    1.0000000000E+00
   p     1  1.00
    1.7250000000E-01    1.0000000000E+00
   d     1  1.00
    1.6540000000E+00    1.0000000000E+00
   d     1  1.00
    4.6900000000E-01    1.0000000000E+00
   f     1  1.00
    1.0930000000E+00    1.0000000000E+00

[MO]
    Sym=
    Ene=  -15.6824592054
   Spin=Alpha
  Occup=2.0000000000
     1 7.0700927737E-01
     2 1.3301829022E-03
     3 2.9925651943E-02
     4 1.2462101464E-03
     7 4.9945163687E-03
    10 -2.8474253542E-04
    13 4.6297983363E-05
    14 4.7955854589E-04
    19 -4.0388504655E-04
    24 -2.3430357395E-04
    31 7.0700927741E-01
    32 1.3301829021E-03
    33 2.9925651945E-02
    34 1.2462101466E-03
    37 -4.9945163689E-03
    40 2.8474253548E-04
    43 -4.6297983450E-05
    44 4.7955854593E-04
    49 -4.0388504655E-04
    54 2.3430357393E-04
    Sym=
    Ene=  -15.6789681760
   Spin=Alpha
  Occup=2.0000000000
     1 7.0672746706E-01
     2 -1.0556054684E-03
     3 2.9498766312E-02
     4 5.1735276526E-03
     7 3.4316356652E-03
    10 -5.6878360251E-04
    13 1.5638589254E-03
    14 6.0083954055E-04
    19 1.7639433303E-04
    24 3.8120061968E-04
    31 -7.0672746702E-01
    32 1.0556054685E-03
    33 -2.9498766311E-02
    34 -5.1735276525E-03
    37 3.4316356649E-03
    40 -5.6878360249E-04
    43 1.5638589254E-03
    44 -6.0083954052E-04
    49 -1.7639433306E-04
    54 3.8120061970E-04
    Sym=
    Ene=   -1.4679356869
   Spin=Alpha
  Occup=2.0000000000
     1 2.3758955170E-02
     2 -6.1208880845E-01
     3 -8.9337877081E-02
     4 -9.8219399829E-02
     7 -3.4100901248E-01
    10 -1.2909193023E-01
    13 -1.6760889803E-02
    14 -1.9947571389E-02
    19 -1.8823135875E-02
    24 -7.5012794877E-03
    31 2.3758955170E-02
    32 -6.1208880845E-01
    33 -8.9337877081E-02
    34 -9.8219399829E-02
    37 3.4100901248E-01
    40 1.2909193023E-01
    43 1.6760889803E-02
    44 -1.9947571389E-02
    49 -1.8823135875E-02
    54 7.5012794877E-03
    Sym=
    Ene=   -0.7781871910
   Spin=Alpha
  Occup=2.0000000000
     1 -4.4412485386E-03
     2 -6.5788901684E-01
     3 -1.0067140587E-01
     4 -3.0706607006E-01
     7 3.1994221550E-01
    10 1.4875773291E-01
    13 7.5626721925E-02
    14 3.4230749386E-03
    19 7.9147943532E-03
    24 -2.3105618243E-04
    31 4.4412485386E-03
    32 6.5788901684E-01
    33 1.0067140587E-01
    34 3.0706607006E-01
    37 3.1994221550E-01
    40 1.4875773291E-01
    43 7.5626721925E-02
    44 -3.4230749386E-03
    49 -7.9147943531E-03
    54 -2.3105618243E-04
    Sym=
    Ene=   -0.6321283245
   Spin=Alpha
  Occup=2.0000000000
     1 -2.2028925321E-03
     2 -2.3465785628E-01
     3 -3.7449708208E-02
     4 -2.6895157491E-01
     7 6.9867525849E-01
    10 3.0077468319E-01
    13 1.4979427840E-01
    14 1.8115582002E-02
    19 1.6113424711E-02
    24 5.1211627558E-03
    31 -2.2028925321E-03
    32 -2.3465785628E-01
    33 -3.7449708208E-02
    34 -2.6895157491E-01
    37 -6.9867525849E-01
    40 -3.0077468319E-01
    43 -1.4979427840E-01
    44 1.8115582002E-02
    49 1.6113424711E-02
    54 -5.1211627558E-03
    Sym=
    Ene=   -0.6110309137
   Spin=Alpha
  Occup=2.0000000000
     5 -6.0171414515E-01
     6 -1.7707449503E-01
     8 -2.9281717954E-01
     9 -8.6171240316E-02
    11 -1.7165272908E-01
    12 -5.0514551748E-02
    16 -5.5492079583E-03
    15 -1.8856679062E-02
    21 -1.0836351351E-02
    20 -3.6822840513E-02
    26 -2.2970090512E-03
    25 -7.8054314788E-03
    35 -6.0171414515E-01
    36 -1.7707449503E-01
    38 -2.9281717954E-01
    39 -8.6171240316E-02
    41 -1.7165272908E-01
    42 -5.0514551748E-02
    46 5.5492079583E-03
    45 1.8856679062E-02
    51 1.0836351351E-02
    50 3.6822840513E-02
    56 -2.2970090512E-03
    55 -7.8054314788E-03
    Sym=
    Ene=   -0.6110309137
   Spin=Alpha
  Occup=2.0000000000
     5 1.7707449503E-01
     6 -6.0171414515E-01
     8 8.6171240316E-02
     9 -2.9281717954E-01
    11 5.0514551748E-02
    12 -1.7165272908E-01
    16 -1.8856679062E-02
    15 5.5492079583E-03
    21 -3.6822840513E-02
    20 1.0836351351E-02
    26 -7.8054314788E-03
    25 2.2970090512E-03
    35 1.7707449503E-01
    36 -6.0171414515E-01
    38 8.6171240316E-02
    39 -2.9281717954E-01
    41 5.0514551748E-02
    42 -1.7165272908E-01
    46 1.8856679062E-02
    45 -5.5492079583E-03
    51 3.6822840513E-02
    50 -1.0836351351E-02
    56 -7.8054314788E-03
    55 2.2970090512E-03
    Sym=
    Ene=    0.1607962678
   Spin=Alpha
  Occup=0.0000000000
     5 1.1119857900E-01
     6 -6.1974781377E-01
     8 5.2957879190E-02
     9 -2.9515242142E-01
    11 1.2591006066E-01
    12 -7.0173994601E-01
    16 1.3216716762E-02
    15 -2.3714163895E-03
    21 -8.4202641903E-03
    20 1.5108103521E-03
    26 -4.5107869889E-04
    25 8.0935033926E-05
    35 -1.1119857900E-01
    36 6.1974781377E-01
    38 -5.2957879190E-02
    39 2.9515242142E-01
    41 -1.2591006066E-01
    42 7.0173994601E-01
    46 1.3216716762E-02
    45 -2.3714163895E-03
    51 -8.4202641902E-03
    50 1.5108103521E-03
    56 4.5107869889E-04
    55 -8.0935033926E-05
    Sym=
    Ene=    0.1607962678
   Spin=Alpha
  Occup=0.0000000000
     5 -6.1974781377E-01
     6 -1.1119857900E-01
     8 -2.9515242142E-01
     9 -5.2957879190E-02
    11 -7.0173994601E-01
    12 -1.2591006066E-01
    16 2.3714163895E-03
    15 1.3216716762E-02
    21 -1.5108103521E-03
    20 -8.4202641903E-03
    26 -8.0935033926E-05
    25 -4.5107869889E-04
    35 6.1974781377E-01
    36 1.1119857900E-01
    38 2.9515242142E-01
    39 5.2957879190E-02
    41 7.0173994601E-01
    42 1.2591006066E-01
    46 2.3714163895E-03
    45 1.3216716762E-02
    51 -1.5108103521E-03
    50 -8.4202641902E-03
    56 8.0935033925E-05
    55 4.5107869889E-04
    Sym=
    Ene=    0.4252422873
   Spin=Alpha
  Occup=0.0000000000
     1 5.7836832163E-02
     2 5.0897805852E-01
     3 5.0365577724E-02
     4 6.6058660218E+00
     7 -4.7113145856E-02
    10 3.0000772294E-01
    13 3.6325855219E+00
    14 -1.8725871257E-02
    19 3.0493679788E-01
    24 2.2543035909E-02
    31 -5.7836832163E-02
    32 -5.0897805852E-01
    33 -5.0365577724E-02
    34 -6.6058660219E+00
    37 -4.7113145856E-02
    40 3.0000772294E-01
    43 3.6325855219E+00
    44 1.8725871257E-02
    49 -3.0493679788E-01
    54 2.2543035909E-02
    Sym=
    Ene=    0.5621583153
   Spin=Alpha
  Occup=0.0000000000
     1 6.1441009897E-02
     2 1.5583269034E-01
     3 5.5092126524E-02
     4 2.5997190334E-01
     7 3.2244353479E-01
    10 4.2651708689E-01
    13 -1.2344755404E+00
    14 4.4493571379E-02
    19 -1.1644193818E-01
    24 -2.4011754284E-02
    31 6.1441009897E-02
    32 1.5583269034E-01
    33 5.5092126524E-02
    34 2.5997190335E-01
    37 -3.2244353479E-01
    40 -4.2651708689E-01
    43 1.2344755404E+00
    44 4.4493571379E-02
    49 -1.1644193818E-01
    54 2.4011754284E-02
    Sym=
    Ene=    0.5628788594
   Spin=Alpha
  Occup=0.0000000000
     5 7.1742163384E-02
     6 -3.6937728840E-01
     8 9.9280353227E-02
     9 -5.1116255681E-01
    11 -1.3412187222E-01
    12 6.9055031432E-01
    16 -1.3983401676E-02
    15 2.7159208734E-03
    21 -7.1084341650E-02
    20 1.3806329227E-02
    26 1.7748498364E-03
    25 -3.4471953459E-04
    35 7.1742163384E-02
    36 -3.6937728840E-01
    38 9.9280353227E-02
    39 -5.1116255681E-01
    41 -1.3412187222E-01
    42 6.9055031432E-01
    46 1.3983401676E-02
    45 -2.7159208734E-03
    51 7.1084341650E-02
    50 -1.3806329227E-02
    56 1.7748498364E-03
    55 -3.4471953459E-04
    Sym=
    Ene=    0.5628788594
   Spin=Alpha
  Occup=0.0000000000
     5 -3.6937728840E-01
     6 -7.1742163384E-02
     8 -5.1116255681E-01
     9 -9.9280353227E-02
    11 6.9055031432E-01
    12 1.3412187222E-01
    16 -2.7159208734E-03
    15 -1.3983401676E-02
    21 -1.3806329227E-02
    20 -7.1084341650E-02
    26 3.4471953459E-04
    25 1.7748498364E-03
    35 -3.6937728840E-01
    36 -7.1742163384E-02
    38 -5.1116255681E-01
    39 -9.9280353227E-02
    41 6.9055031432E-01
    42 1.3412187222E-01
    46 2.7159208734E-03
    45 1.3983401676E-02
    51 1.3806329227E-02
    50 7.1084341650E-02
    56 3.4471953459E-04
    55 1.7748498364E-03
    Sym=
    Ene=    0.6722929944
   Spin=Alpha
  Occup=0.0000000000
     1 3.2299491152E-01
     2 1.5613399380E+00
     3 1.5395661526E-01
     4 -9.1705947511E-01
     7 -1.3958686530E-01
    10 -1.4268199331E-01
    13 -3.7332935363E-02
    14 7.3339302313E-03
    19 1.3790081091E-01
    24 -3.6812559530E-03
    31 3.2299491152E-01
    32 1.5613399380E+00
    33 1.5395661526E-01
    34 -9.1705947513E-01
    37 1.3958686530E-01
    40 1.4268199331E-01
    43 3.7332935367E-02
    44 7.3339302312E-03
    49 1.3790081090E-01
    54 3.6812559533E-03
    Sym=
    Ene=    0.7315685807
   Spin=Alpha
  Occup=0.0000000000
     5 9.0951589154E-02
     6 -5.7218764445E-01
     8 8.5041190932E-02
     9 -5.3500460161E-01
    11 -2.3877355404E-01
    12 1.5021538240E+00
    16 -1.4102536980E-02
    15 2.2416564949E-03
    21 2.5493231999E-01
    20 -4.0522545104E-02
    26 3.7575060949E-02
    25 -5.9727111185E-03
    35 -9.0951589154E-02
    36 5.7218764445E-01
    38 -8.5041190932E-02
    39 5.3500460161E-01
    41 2.3877355404E-01
    42 -1.5021538240E+00
    46 -1.4102536980E-02
    45 2.2416564949E-03
    51 2.5493231999E-01
    50 -4.0522545104E-02
    56 -3.7575060949E-02
    55 5.9727111185E-03
    Sym=
    Ene=    0.7315685807
   Spin=Alpha
  Occup=0.0000000000
     5 -5.7218764445E-01
     6 -9.0951589154E-02
     8 -5.3500460161E-01
     9 -8.5041190932E-02
    11 1.5021538240E+00
    12 2.3877355404E-01
    16 -2.2416564949E-03
    15 -1.4102536980E-02
    21 4.0522545104E-02
    20 2.5493231999E-01
    26 5.9727111184E-03
    25 3.7575060949E-02
    35 5.7218764445E-01
    36 9.0951589154E-02
    38 5.3500460161E-01
    39 8.5041190932E-02
    41 -1.5021538240E+00
    42 -2.3877355404E-01
    46 -2.2416564949E-03
    45 -1.4102536980E-02
    51 4.0522545104E-02
    50 2.5493231999E-01
    56 -5.9727111185E-03
    55 -3.7575060949E-02
    Sym=
    Ene=    0.9241333068
   Spin=Alpha
  Occup=0.0000000000
     1 -8.8421009078E-02
     2 -3.9193718267E-01
     3 -9.1947430458E-02
     4 6.4877789040E+00
     7 4.8211882474E-01
    10 1.2830126782E+00
    13 2.2583567370E+00
    14 1.7874004747E-02
    19 2.3699569031E-01
    24 6.1105892603E-02
    31 8.8421009077E-02
    32 3.9193718267E-01
    33 9.1947430458E-02
    34 -6.4877789040E+00
    37 4.8211882474E-01
    40 1.2830126782E+00
    43 2.2583567370E+00
    44 -1.7874004747E-02
    49 -2.3699569031E-01
    54 6.1105892603E-02
    Sym=
    Ene=    1.0484230549
   Spin=Alpha
  Occup=0.0000000000
    18 4.5799963225E-03
    17 -5.7380691141E-03
    23 -3.7939114100E-01
    22 4.7532190749E-01
    28 -3.0477458843E-03
    27 3.8183822201E-03
    48 4.5799963225E-03
    47 -5.7380691141E-03
    53 -3.7939114100E-01
    52 4.7532190749E-01
    58 3.0477458843E-03
    57 -3.8183822201E-03
    Sym=
    Ene=    1.0484230549
   Spin=Alpha
  Occup=0.0000000000
    18 5.7380691141E-03
    17 4.5799963225E-03
    23 -4.7532190749E-01
    22 -3.7939114100E-01
    28 -3.8183822201E-03
    27 -3.0477458843E-03
    48 5.7380691141E-03
    47 4.5799963225E-03
    53 -4.7532190749E-01
    52 -3.7939114100E-01
    58 3.8183822201E-03
    57 3.0477458843E-03
    Sym=
    Ene=    1.0872911027
   Spin=Alpha
  Occup=0.0000000000
     1 1.5502297200E-02
     2 6.1318132311E-01
     3 1.7409384397E-01
     4 -9.8090528320E+00
     7 7.0547976607E-01
    10 -9.4066740300E-01
    13 -4.1116806351E+00
    14 -6.1993519962E-02
    19 -1.0005444939E+00
    24 -1.0254302979E-01
    31 -1.5502297200E-02
    32 -6.1318132311E-01
    33 -1.7409384397E-01
    34 9.8090528320E+00
    37 7.0547976607E-01
    40 -9.4066740300E-01
    43 -4.1116806351E+00
    44 6.1993519962E-02
    49 1.0005444939E+00
    54 -1.0254302979E-01
    Sym=
    Ene=    1.3414322125
   Spin=Alpha
  Occup=0.0000000000
     5 -3.4849065840E-03
     6 1.9123589965E-01
     8 -6.1768602086E-03
     9 3.3895813001E-01
    11 2.0867448151E-03
    12 -1.1451111025E-01
    16 -3.7912934207E-03
    15 6.9089033117E-05
    21 -6.4334098965E-01
    20 1.1723652592E-02
    26 1.1406294322E-02
    25 -2.0785778327E-04
    35 -3.4849065840E-03
    36 1.9123589965E-01
    38 -6.1768602086E-03
    39 3.3895813001E-01
    41 2.0867448151E-03
    42 -1.1451111025E-01
    46 3.7912934207E-03
    45 -6.9089033116E-05
    51 6.4334098965E-01
    50 -1.1723652592E-02
    56 1.1406294322E-02
    55 -2.0785778327E-04
    Sym=
    Ene=    1.3414322125
   Spin=Alpha
  Occup=0.0000000000
     5 1.9123589965E-01
     6 3.4849065840E-03
     8 3.3895813001E-01
     9 6.1768602086E-03
    11 -1.1451111025E-01
    12 -2.0867448151E-03
    16 -6.9089033116E-05
    15 -3.7912934207E-03
    21 -1.1723652592E-02
    20 -6.4334098965E-01
    26 2.0785778327E-04
    25 1.1406294322E-02
    35 1.9123589965E-01
    36 3.4849065840E-03
    38 3.3895813001E-01
    39 6.1768602086E-03
    41 -1.1451111025E-01
    42 -2.0867448151E-03
    46 6.9089033115E-05
    45 3.7912934207E-03
    51 1.1723652592E-02
    50 6.4334098965E-01
    56 2.0785778327E-04
    55 1.1406294322E-02
    Sym=
    Ene=    1.5120283460
   Spin=Alpha
  Occup=0.0000000000
    18 2.0688644760E-02
    17 -4.5228775439E-04
    23 -9.0069607877E-01
    22 1.9690695624E-02
    28 -4.8832450220E-03
    27 1.0675575663E-04
    48 -2.0688644760E-02
    47 4.5228775439E-04
    53 9.0069607877E-01
    52 -1.9690695624E-02
    58 -4.8832450219E-03
    57 1.0675575663E-04
    Sym=
    Ene=    1.5120283460
   Spin=Alpha
  Occup=0.0000000000
    18 -4.5228775439E-04
    17 -2.0688644760E-02
    23 1.9690695624E-02
    22 9.0069607877E-01
    28 1.0675575663E-04
    27 4.8832450220E-03
    48 4.5228775439E-04
    47 2.0688644760E-02
    53 -1.9690695624E-02
    52 -9.0069607877E-01
    58 1.0675575663E-04
    57 4.8832450219E-03
    Sym=
    Ene=    1.9325759902
   Spin=Alpha
  Occup=0.0000000000
     1 -4.7567482432E-01
     2 -1.8099205541E+00
     3 -3.8832402913E-01
     4 5.5919819824E-01
     7 4.0395455167E-01
    10 -4.7972232897E-01
    13 1.1115389171E+00
    14 -2.2557439391E-02
    19 1.2198898879E+00
    24 7.5331508090E-02
    31 -4.7567482432E-01
    32 -1.8099205541E+00
    33 -3.8832402913E-01
    34 5.5919819824E-01
    37 -4.0395455167E-01
    40 4.7972232897E-01
    43 -1.1115389171E+00
    44 -2.2557439392E-02
    49 1.2198898879E+00
    54 -7.5331508090E-02
    Sym=
    Ene=    1.9409192218
   Spin=Alpha
  Occup=0.0000000000
     5 4.1113775796E-01
     6 4.1939143265E-02
     8 7.0283391474E-01
     9 7.1694344950E-02
    11 1.0236712162E+00
    12 1.0442216255E-01
    16 -3.1989948641E-03
    15 -3.1360382540E-02
    21 1.7759235385E-01
    20 1.7409731461E+00
    26 1.1618771743E-02
    25 1.1390112895E-01
    35 -4.1113775797E-01
    36 -4.1939143265E-02
    38 -7.0283391474E-01
    39 -7.1694344950E-02
    41 -1.0236712162E+00
    42 -1.0442216255E-01
    46 -3.1989948641E-03
    45 -3.1360382540E-02
    51 1.7759235385E-01
    50 1.7409731461E+00
    56 -1.1618771743E-02
    55 -1.1390112895E-01
    Sym=
    Ene=    1.9409192218
   Spin=Alpha
  Occup=0.0000000000
     5 4.1939143265E-02
     6 -4.1113775796E-01
     8 7.1694344950E-02
     9 -7.0283391474E-01
    11 1.0442216255E-01
    12 -1.0236712162E+00
    16 3.1360382540E-02
    15 -3.1989948641E-03
    21 -1.7409731461E+00
    20 1.7759235385E-01
    26 -1.1390112895E-01
    25 1.1618771743E-02
    35 -4.1939143265E-02
    36 4.1113775797E-01
    38 -7.1694344950E-02
    39 7.0283391474E-01
    41 -1.0442216255E-01
    42 1.0236712162E+00
    46 3.1360382540E-02
    45 -3.1989948641E-03
    51 -1.7409731461E+00
    50 1.7759235385E-01
    56 1.1390112895E-01
    55 -1.1618771743E-02
    Sym=
    Ene=    2.2442003791
   Spin=Alpha
  Occup=0.0000000000
     1 -3.3623310984E-01
     2 -1.6069940295E+00
     3 -3.4705724414E-01
     4 -5.8383569587E+00
     7 -1.1284020056E+00
    10 -1.4020400844E+00
    13 -2.5339951828E+00
    14 7.0615596155E-02
    19 -1.3888574849E+00
    24 3.0635359388E-02
    31 3.3623310984E-01
    32 1.6069940295E+00
    33 3.4705724414E-01
    34 5.8383569587E+00
    37 -1.1284020056E+00
    40 -1.4020400844E+00
    43 -2.5339951828E+00
    44 -7.0615596155E-02
    49 1.3888574849E+00
    54 3.0635359388E-02
    Sym=
    Ene=    3.1659671103
   Spin=Alpha
  Occup=0.0000000000
     5 -1.7544099518E+00
     6 1.6134002664E+00
     8 7.1969158745E-01
     9 -6.6184679225E-01
    11 -2.6908464708E-01
    12 2.4745712416E-01
    16 2.5154932420E-02
    15 -2.7353450160E-02
    21 3.3997505898E-02
    20 -3.6968856352E-02
    26 6.9876358784E-02
    25 -7.5983487671E-02
    35 -1.7544099518E+00
    36 1.6134002664E+00
    38 7.1969158745E-01
    39 -6.6184679225E-01
    41 -2.6908464708E-01
    42 2.4745712416E-01
    46 -2.5154932420E-02
    45 2.7353450160E-02
    51 -3.3997505898E-02
    50 3.6968856352E-02
    56 6.9876358784E-02
    55 -7.5983487671E-02
    Sym=
    Ene=    3.1659671103
   Spin=Alpha
  Occup=0.0000000000
     5 -1.6134002664E+00
     6 -1.7544099518E+00
     8 6.6184679225E-01
     9 7.1969158745E-01
    11 -2.4745712416E-01
    12 -2.6908464708E-01
    16 -2.7353450160E-02
    15 -2.5154932420E-02
    21 -3.6968856352E-02
    20 -3.3997505899E-02
    26 -7.5983487671E-02
    25 -6.9876358784E-02
    35 -1.6134002664E+00
    36 -1.7544099518E+00
    38 6.6184679225E-01
    39 7.1969158745E-01
    41 -2.4745712416E-01
    42 -2.6908464708E-01
    46 2.7353450160E-02
    45 2.5154932420E-02
    51 3.6968856352E-02
    50 3.3997505898E-02
    56 -7.5983487671E-02
    55 -6.9876358784E-02
    Sym=
    Ene=    3.3024177012
   Spin=Alpha
  Occup=0.0000000000
     1 -1.3621146580E-02
     2 -1.9845780929E-01
     3 -1.6930440343E-01
     4 1.2207222468E-01
     7 -1.6612061402E+00
    10 6.6017446101E-01
    13 -2.0546543216E-01
    14 -6.7020658311E-02
    19 3.0327269727E-01
    24 -3.5477376970E-01
    31 -1.3621146580E-02
    32 -1.9845780929E-01
    33 -1.6930440343E-01
    34 1.2207222468E-01
    37 1.6612061402E+00
    40 -6.6017446100E-01
    43 2.0546543216E-01
    44 -6.7020658311E-02
    49 3.0327269727E-01
    54 3.5477376970E-01
    Sym=
    Ene=    3.5073406854
   Spin=Alpha
  Occup=0.0000000000
     5 -1.0824088982E+00
     6 -2.1312013722E+00
     8 6.0336873671E-01
     9 1.1879986221E+00
    11 -1.6764308973E-01
    12 -3.3007968013E-01
    16 -7.6920869755E-05
    15 -3.9067089093E-05
    21 4.0921056148E-01
    20 2.0783261439E-01
    26 -1.1438672746E-01
    25 -5.8095501087E-02
    35 1.0824088982E+00
    36 2.1312013722E+00
    38 -6.0336873671E-01
    39 -1.1879986221E+00
    41 1.6764308973E-01
    42 3.3007968013E-01
    46 -7.6920869757E-05
    45 -3.9067089093E-05
    51 4.0921056148E-01
    50 2.0783261439E-01
    56 1.1438672746E-01
    55 5.8095501087E-02
    Sym=
    Ene=    3.5073406854
   Spin=Alpha
  Occup=0.0000000000
     5 2.1312013722E+00
     6 -1.0824088982E+00
     8 -1.1879986221E+00
     9 6.0336873671E-01
    11 3.3007968013E-01
    12 -1.6764308973E-01
    16 -3.9067089091E-05
    15 7.6920869751E-05
    21 2.0783261439E-01
    20 -4.0921056148E-01
    26 -5.8095501087E-02
    25 1.1438672746E-01
    35 -2.1312013722E+00
    36 1.0824088982E+00
    38 1.1879986221E+00
    39 -6.0336873671E-01
    41 -3.3007968013E-01
    42 1.6764308973E-01
    46 -3.9067089093E-05
    45 7.6920869752E-05
    51 2.0783261439E-01
    50 -4.0921056148E-01
    56 5.8095501087E-02
    55 -1.1438672746E-01
    Sym=
    Ene=    3.7582309750
   Spin=Alpha
  Occup=0.0000000000
     1 -2.0988272231E-01
     2 -1.6476506286E+00
     3 -8.3569983185E-01
     4 -7.0766179166E+00
     7 2.0808295158E+00
    10 -3.5171350343E+00
    13 -2.4716596429E+00
    14 -6.0701568474E-02
    19 -1.3828417951E+00
    24 -1.7048086610E-01
    31 2.0988272231E-01
    32 1.6476506286E+00
    33 8.3569983185E-01
    34 7.0766179166E+00
    37 2.0808295158E+00
    40 -3.5171350343E+00
    43 -2.4716596429E+00
    44 6.0701568474E-02
    49 1.3828417951E+00
    54 -1.7048086610E-01
    Sym=
    Ene=    3.8279393432
   Spin=Alpha
  Occup=0.0000000000
    18 -1.0374341123E-01
    17 -1.3294683988E-01
    23 1.1300302434E-01
    22 1.4481300360E-01
    28 -3.6914547440E-01
    27 -4.7305870993E-01
    48 -1.0374341123E-01
    47 -1.3294683988E-01
    53 1.1300302434E-01
    52 1.4481300360E-01
    58 3.6914547440E-01
    57 4.7305870993E-01
    Sym=
    Ene=    3.8279393432
   Spin=Alpha
  Occup=0.0000000000
    18 -1.3294683988E-01
    17 1.0374341123E-01
    23 1.4481300360E-01
    22 -1.1300302434E-01
    28 -4.7305870993E-01
    27 3.6914547440E-01
    48 -1.3294683988E-01
    47 1.0374341123E-01
    53 1.4481300360E-01
    52 -1.1300302434E-01
    58 4.7305870993E-01
    57 -3.6914547440E-01
    Sym=
    Ene=    3.9593425532
   Spin=Alpha
  Occup=0.0000000000
    30 -5.2558576093E-02
    29 -6.7391130211E-01
    60 -5.2558576093E-02
    59 -6.7391130211E-01
    Sym=
    Ene=    3.9593425532
   Spin=Alpha
  Occup=0.0000000000
    30 6.7391130211E-01
    29 -5.2558576093E-02
    60 6.7391130211E-01
    59 -5.2558576093E-02
    Sym=
    Ene=    3.9855158097
   Spin=Alpha
  Occup=0.0000000000
     5 -4.0574155116E-01
     6 2.2043778532E-01
     8 7.0253551629E-02
     9 -3.8168477661E-02
    11 1.3624773125E-02
    12 -7.4022855300E-03
    16 -2.4874249395E-01
    15 4.5783968111E-01
    21 1.5286483144E-01
    20 -2.8136561860E-01
    26 -1.8370015102E-01
    25 3.3812163425E-01
    35 -4.0574155116E-01
    36 2.2043778532E-01
    38 7.0253551629E-02
    39 -3.8168477661E-02
    41 1.3624773125E-02
    42 -7.4022855300E-03
    46 2.4874249395E-01
    45 -4.5783968111E-01
    51 -1.5286483144E-01
    50 2.8136561860E-01
    56 -1.8370015102E-01
    55 3.3812163425E-01
    Sym=
    Ene=    3.9855158097
   Spin=Alpha
  Occup=0.0000000000
     5 -2.2043778532E-01
     6 -4.0574155116E-01
     8 3.8168477661E-02
     9 7.0253551629E-02
    11 7.4022855300E-03
    12 1.3624773125E-02
    16 4.5783968111E-01
    15 2.4874249395E-01
    21 -2.8136561860E-01
    20 -1.5286483144E-01
    26 3.3812163425E-01
    25 1.8370015102E-01
    35 -2.2043778532E-01
    36 -4.0574155116E-01
    38 3.8168477661E-02
    39 7.0253551629E-02
    41 7.4022855300E-03
    42 1.3624773125E-02
    46 -4.5783968111E-01
    45 -2.4874249395E-01
    51 2.8136561860E-01
    50 1.5286483144E-01
    56 3.3812163425E-01
    55 1.8370015102E-01
    Sym=
    Ene=    4.3897756581
   Spin=Alpha
  Occup=0.0000000000
     1 4.0463344681E-01
     2 8.0570891780E-01
     3 -6.1091069428E-01
     4 -1.8629916847E-01
     7 8.3713172197E-01
    10 -2.9162310964E-01
    13 2.9981042540E-01
    14 -6.8071820852E-01
    19 5.1565082162E-01
    24 -3.5792602097E-02
    31 4.0463344681E-01
    32 8.0570891780E-01
    33 -6.1091069428E-01
    34 -1.8629916847E-01
    37 -8.3713172197E-01
    40 2.9162310964E-01
    43 -2.9981042540E-01
    44 -6.8071820852E-01
    49 5.1565082162E-01
    54 3.5792602097E-02
    Sym=
    Ene=    4.4457352640
   Spin=Alpha
  Occup=0.0000000000
    30 -3.9303771471E-01
    29 -6.3053321797E-01
    60 3.9303771471E-01
    59 6.3053321797E-01
    Sym=
    Ene=    4.4457352640
   Spin=Alpha
  Occup=0.0000000000
    30 6.3053321797E-01
    29 -3.9303771471E-01
    60 -6.3053321797E-01
    59 3.9303771471E-01
    Sym=
    Ene=    4.7717500706
   Spin=Alpha
  Occup=0.0000000000
    18 5.8994319260E-01
    17 5.4846305900E-01
    23 -2.4861224922E-01
    22 -2.3113180459E-01
    28 -1.0796002478E-01
    27 -1.0036913076E-01
    48 5.8994319260E-01
    47 5.4846305900E-01
    53 -2.4861224922E-01
    52 -2.3113180459E-01
    58 1.0796002478E-01
    57 1.0036913076E-01
    Sym=
    Ene=    4.7717500706
   Spin=Alpha
  Occup=0.0000000000
    18 5.4846305900E-01
    17 -5.8994319260E-01
    23 -2.3113180459E-01
    22 2.4861224922E-01
    28 -1.0036913076E-01
    27 1.0796002478E-01
    48 5.4846305900E-01
    47 -5.8994319260E-01
    53 -2.3113180459E-01
    52 2.4861224922E-01
    58 1.0036913076E-01
    57 -1.0796002478E-01
    Sym=
    Ene=    4.8861485827
   Spin=Alpha
  Occup=0.0000000000
     5 -4.4223693501E-01
     6 -4.1549499392E-01
     8 8.7850661258E-01
     9 8.2538356876E-01
    11 4.1048471410E-01
    12 3.8566282074E-01
    16 -4.2073426324E-01
    15 -4.4781341232E-01
    21 1.0723298645E+00
    20 1.1413467780E+00
    26 4.8950090059E-01
    25 5.2100598353E-01
    35 4.4223693501E-01
    36 4.1549499392E-01
    38 -8.7850661258E-01
    39 -8.2538356876E-01
    41 -4.1048471410E-01
    42 -3.8566282074E-01
    46 -4.2073426324E-01
    45 -4.4781341232E-01
    51 1.0723298645E+00
    50 1.1413467780E+00
    56 -4.8950090059E-01
    55 -5.2100598353E-01
    Sym=
    Ene=    4.8861485827
   Spin=Alpha
  Occup=0.0000000000
     5 -4.1549499392E-01
     6 4.4223693501E-01
     8 8.2538356876E-01
     9 -8.7850661258E-01
    11 3.8566282074E-01
    12 -4.1048471410E-01
    16 4.4781341232E-01
    15 -4.2073426324E-01
    21 -1.1413467780E+00
    20 1.0723298645E+00
    26 -5.2100598353E-01
    25 4.8950090059E-01
    35 4.1549499392E-01
    36 -4.4223693501E-01
    38 -8.2538356876E-01
    39 8.7850661258E-01
    41 -3.8566282074E-01
    42 4.1048471410E-01
    46 4.4781341232E-01
    45 -4.2073426324E-01
    51 -1.1413467780E+00
    50 1.0723298645E+00
    56 5.2100598353E-01
    55 -4.8950090059E-01
    Sym=
    Ene=    4.9070679078
   Spin=Alpha
  Occup=0.0000000000
    18 8.1513815476E-01
    17 1.8758876709E-01
    23 -5.5241257673E-01
    22 -1.2712739993E-01
    28 -1.2405632713E-01
    27 -2.8549238336E-02
    48 -8.1513815476E-01
    47 -1.8758876709E-01
    53 5.5241257673E-01
    52 1.2712739993E-01
    58 -1.2405632713E-01
    57 -2.8549238336E-02
    Sym=
    Ene=    4.9070679078
   Spin=Alpha
  Occup=0.0000000000
    18 -1.8758876709E-01
    17 8.1513815476E-01
    23 1.2712739993E-01
    22 -5.5241257673E-01
    28 2.8549238336E-02
    27 -1.2405632713E-01
    48 1.8758876709E-01
    47 -8.1513815476E-01
    53 -1.2712739993E-01
    52 5.5241257673E-01
    58 2.8549238336E-02
    57 -1.2405632713E-01
    Sym=
    Ene=    5.0201061951
   Spin=Alpha
  Occup=0.0000000000
     1 2.6294158302E-01
     2 1.1914622145E+00
     3 4.3604099770E-01
     4 2.2462792830E+00
     7 6.6023390798E-01
    10 9.8684209741E-01
    13 9.4973336149E-01
    14 -1.4303112064E-01
    19 7.9434278913E-01
    24 8.7575719945E-01
    31 -2.6294158302E-01
    32 -1.1914622145E+00
    33 -4.3604099770E-01
    34 -2.2462792830E+00
    37 6.6023390798E-01
    40 9.8684209741E-01
    43 9.4973336149E-01
    44 1.4303112064E-01
    49 -7.9434278913E-01
    54 8.7575719945E-01
    Sym=
    Ene=    5.3046438684
   Spin=Alpha
  Occup=0.0000000000
    18 -9.9506939336E-02
    17 -1.7257783775E-02
    23 -2.7046717899E-01
    22 -4.6907925461E-02
    28 -9.1957747271E-01
    27 -1.5948504993E-01
    48 9.9506939336E-02
    47 1.7257783775E-02
    53 2.7046717899E-01
    52 4.6907925461E-02
    58 -9.1957747271E-01
    57 -1.5948504993E-01
    Sym=
    Ene=    5.3046438684
   Spin=Alpha
  Occup=0.0000000000
    18 1.7257783775E-02
    17 -9.9506939336E-02
    23 4.6907925461E-02
    22 -2.7046717899E-01
    28 1.5948504993E-01
    27 -9.1957747271E-01
    48 -1.7257783775E-02
    47 9.9506939336E-02
    53 -4.6907925461E-02
    52 2.7046717899E-01
    58 1.5948504993E-01
    57 -9.1957747271E-01
    Sym=
    Ene=    5.4170041657
   Spin=Alpha
  Occup=0.0000000000
     5 -2.7117617410E-01
     6 9.8401088781E-02
     8 -1.3233583346E-01
     9 4.8020406442E-02
    11 4.2626308247E-02
    12 -1.5467712664E-02
    16 2.3248113595E-01